Title: memristor with threshold
Date: Tue May 30 22:52:28  2023
Plotname: Transient Analysis (linearized)
Flags: real
No. Variables: 31
No. Points: 900
Variables:
	0	time	time
	1	i(v.xunit1-2.vtemp2)	current
	2	i(v.xunit1-3.vtemp2)	current
	3	i(v.xunit2-3.vtemp2)	current
	4	i(v.xunit3-1.vtemp2)	current
	5	i(v.xunit3-4.vtemp2)	current
	6	i(v.xunit3-5.vtemp2)	current
	7	i(v.xunit4-5.vtemp2)	current
	8	i(v.xunit5-3.vtemp2)	current
	9	i(v.xunit5-6.vtemp2)	current
	10	i(v.xunit5-7.vtemp2)	current
	11	i(v.xunit6-7.vtemp2)	current
	12	i(v.xunit7-5.vtemp2)	current
	13	i(v.xunit7-8.vtemp2)	current
	14	i(v.xunit7-9.vtemp2)	current
	15	i(v.xunit8-9.vtemp2)	current
	16	i(v.xunit9-7.vtemp2)	current
	17	i(v.xunit9-10.vtemp2)	current
	18	i(v.xunit9-11.vtemp2)	current
	19	i(v.xunit10-11.vtemp2)	current
	20	i(v.xunit11-9.vtemp2)	current
	21	i(v.xunit11-12.vtemp2)	current
	22	i(v.xunit11-13.vtemp2)	current
	23	i(v.xunit12-13.vtemp2)	current
	24	i(v.xunit13-11.vtemp2)	current
	25	i(v.xunit13-14.vtemp2)	current
	26	i(v.xunit13-15.vtemp2)	current
	27	i(v.xunit14-15.vtemp2)	current
	28	i(v.xunit15-1.vtemp2)	current
	29	i(v.xunit15-13.vtemp2)	current
	30	v(vt1)	voltage
Values:
 0	0.000000000000000e+00
	3.144145379651276e-06
	1.321662461648428e-07
	2.094575894698378e-06
	-3.001562664669437e-06
	5.944903141615225e-07
	4.967337007437156e-06
	4.915315425663085e-06
	-3.163610820664055e-06
	-1.635984794625538e-06
	-3.177148894228187e-06
	-1.119873151610363e-06
	4.916430106280474e-06
	5.936512396479501e-07
	5.973297658610872e-07
	5.949573413099149e-07
	5.969329593784336e-07
	5.944603451898157e-07
	5.998372743281775e-07
	5.956834126988656e-07
	5.987456709767411e-07
	5.957897239741985e-07
	2.183372841827527e-06
	2.155429702734985e-06
	-8.535452507552227e-07
	2.635816476186691e-06
	2.602076488841373e-06
	5.695166570406007e-07
	-5.363468158448428e-06
	-1.267860009457463e-06
	2.500000000000018e+00

 1	5.561740000000000e-04
	-3.029184402930115e-06
	-1.242402268308874e-07
	-1.935277358495120e-06
	3.126766117658222e-06
	-5.535627251723740e-11
	-4.281596691816544e-11
	-4.306756925998072e-11
	-4.259835778390453e-11
	-2.534397836227398e-06
	-5.021938779882853e-06
	-2.534430885045522e-06
	4.066211369858090e-06
	2.174127245182459e-06
	4.078122762010420e-06
	2.174205796904012e-06
	-4.979014036667019e-06
	-5.527120438848124e-11
	-5.518380197244720e-11
	-5.542510569424276e-11
	-5.522001345764627e-11
	-5.531562599463136e-11
	-4.359630712013144e-11
	-4.370022746447155e-11
	-5.879476256982069e-11
	-5.279804631691531e-11
	-5.311609214551592e-11
	-4.819957323889977e-11
	3.126755389043380e-06
	-3.306834493732591e-11
	2.499999999999997e+00

 2	1.112348000000000e-03
	-3.029288829724037e-06
	-1.242804602944228e-07
	-1.935274287679530e-06
	3.126874298851610e-06
	2.063237451211083e-15
	-4.265314792464249e-06
	-4.221353498560829e-06
	3.653844270443468e-06
	-3.206130429271974e-07
	-6.685524672432614e-07
	-3.206388526472143e-07
	5.691537995616152e-07
	2.130547498581122e-06
	3.996531772932904e-06
	2.130548403797616e-06
	-4.878314663559755e-06
	2.092536098660086e-15
	1.449707812507888e-15
	1.950030214040993e-15
	1.573493751799394e-15
	-5.740128881639247e-08
	-1.778068548661673e-06
	-1.699093614662804e-06
	1.603535933295667e-06
	-1.754133190243916e-06
	-1.732182159896666e-06
	1.087114134687953e-12
	5.481451988626976e-06
	1.594441341533148e-06
	2.500000000000000e+00

 3	1.668522000000000e-03
	-3.029407220388709e-06
	-1.243214398880702e-07
	-1.935281601624229e-06
	3.126874312415575e-06
	-1.980080129001193e-15
	-4.343600993017066e-06
	-4.298956991587624e-06
	3.706451852004672e-06
	1.856987038344916e-06
	3.551692965907057e-06
	1.857069236360600e-06
	-4.110235702017496e-06
	9.832570320927758e-08
	1.974767728774974e-07
	9.837767630588848e-08
	-1.982069133249009e-07
	-2.007543110321233e-15
	-1.391302036971364e-15
	-1.872116351993068e-15
	-1.510064365205257e-15
	-2.726396949373714e-06
	-2.274275943569839e-06
	4.359387170750361e-07
	2.024288652894956e-06
	-1.328524987635505e-06
	-1.312352879862688e-06
	-1.043717802980969e-12
	5.536385850481190e-06
	1.221728187160137e-06
	2.500000000000000e+00

 4	2.224696000000000e-03
	-3.029525534762369e-06
	-1.243623847375684e-07
	-1.935288911172129e-06
	3.126874362684182e-06
	1.980305727437971e-15
	-4.343602294272458e-06
	-4.299000170820788e-06
	3.706463388154967e-06
	1.890871434021284e-06
	3.619569217287749e-06
	1.890790303640495e-06
	-4.180611440627835e-06
	1.461075976515832e-08
	2.903562423654719e-08
	1.455862716725744e-08
	-3.016186570373974e-08
	4.268216999993472e-08
	8.379429654111980e-08
	4.268111392084427e-08
	-9.130390684883020e-08
	-2.834276100573715e-06
	-2.291908023629425e-06
	5.189013382064839e-07
	2.039184680410613e-06
	-1.310907476341413e-06
	-1.294991110393657e-06
	1.043706592803636e-12
	5.536382511271520e-06
	1.206320012654302e-06
	2.500000000000000e+00

 5	2.780870000000000e-03
	-2.963769853023858e-06
	-1.226421027998612e-07
	-1.891855711163512e-06
	3.197860932610444e-06
	1.001502263278094e-07
	-4.232868904006437e-06
	-4.299038812424148e-06
	3.613731431365864e-06
	6.045259849060907e-07
	1.180136522549448e-06
	6.045707256023191e-07
	-1.304358614823492e-06
	3.616341372012215e-07
	7.199114822815148e-07
	3.616265255366167e-07
	-7.478602010850888e-07
	1.005994197468376e-06
	1.974450535989191e-06
	1.005968796337493e-06
	-2.153310013980583e-06
	-2.722609092244064e-06
	-2.216376548822934e-06
	4.839523128724454e-07
	1.972936091702199e-06
	-1.273899226649982e-06
	-1.258470093201671e-06
	-1.043706450246464e-12
	5.536386058944650e-06
	1.172972694532929e-06
	2.513229954183184e+00

 6	3.337044000000000e-03
	-1.397355472594576e-06
	-8.077965909144421e-08
	-8.587841752812336e-07
	4.887741729579462e-06
	2.483441726214861e-06
	-1.487692387062890e-06
	-4.186689711858647e-06
	1.300830382234556e-06
	5.559110315841855e-07
	1.088043743814821e-06
	5.558676559119150e-07
	-1.192797819569050e-06
	3.148727764785953e-07
	6.242251590864196e-07
	3.148793150726701e-07
	-6.621980235963623e-07
	-1.501228767563691e-07
	-3.073532664863141e-07
	-1.501287329233863e-07
	2.895485705836152e-07
	-6.639183112955901e-08
	-4.753496783930202e-07
	-4.022638992450068e-07
	4.440086607942475e-07
	-4.488802132058690e-07
	-4.438347366391546e-07
	1.043694996954692e-12
	5.536382719562226e-06
	4.289883361027515e-07
	2.814888828899376e+00

 7	3.893218000000000e-03
	-1.363587783862739e-06
	-7.941927412680446e-08
	-8.357300765898008e-07
	4.966208449146890e-06
	2.573967880822085e-06
	1.232989735125328e-06
	-1.511416520776037e-06
	-1.308069762683130e-06
	6.695277245649403e-07
	1.324752423272513e-06
	6.696387132083283e-07
	-1.389636166530931e-06
	-1.096776959719054e-06
	-2.234164071497450e-06
	-1.096749189528845e-06
	2.036164557562612e-06
	1.024117029666207e-06
	2.011836635867025e-06
	1.024152463349962e-06
	-2.189831293477362e-06
	5.006966339698859e-08
	-1.642833967565913e-06
	-1.673110847754882e-06
	1.480814363786037e-06
	-1.657366978294190e-06
	-1.636781983188610e-06
	-1.054136232614771e-12
	5.442504913473848e-06
	1.502432786812476e-06
	2.519325536020738e+00

 8	4.449392000000000e-03
	-1.363652701828198e-06
	-7.944534408887938e-08
	-8.357337569772385e-07
	4.966203494072139e-06
	2.543274668035097e-06
	1.340185777356139e-06
	-1.357917984141330e-06
	-1.427384797022660e-06
	6.460499467706542e-07
	1.277793866265925e-06
	6.459411629867680e-07
	-1.340745995859089e-06
	-1.087669830748390e-06
	-2.215908621582947e-06
	-1.087695761721830e-06
	2.006656748112322e-06
	4.859845448848478e-07
	9.666041962368725e-07
	4.859374332986973e-07
	-1.014910945759831e-06
	1.154132057310577e-06
	6.819156048063902e-07
	-5.012378236566005e-07
	-6.828255664211688e-07
	2.868791778927159e-07
	2.838091529385039e-07
	8.437642378801606e-13
	3.253691374133468e-06
	-2.927285854720053e-07
	2.645130066328418e+00

 9	5.005565999999999e-03
	-1.426106113145671e-06
	-8.120144760997417e-08
	-8.770161279850544e-07
	4.894614749220480e-06
	1.708939384449444e-06
	1.233952952024589e-06
	-5.216441341682411e-07
	-1.320715177590673e-06
	6.432737425996960e-08
	1.286420697626879e-07
	6.442152022922649e-08
	-1.305065201801612e-07
	5.655087190566122e-07
	1.121256977289259e-06
	5.655459355146490e-07
	-1.174495583736574e-06
	1.895234743715549e-08
	3.827262062256753e-08
	1.903867047137234e-08
	-3.828102655777274e-08
	4.976757786725432e-08
	-8.687690502182068e-07
	-9.094486880218647e-07
	8.072265994659747e-07
	-8.776681259247464e-07
	-8.671460769178479e-07
	4.860447568641327e-14
	4.247158967280708e-06
	8.405728201347827e-07
	2.506096398604215e+00

 10	5.561739999999999e-03
	-2.913484437137991e-06
	-1.224228912668441e-07
	-1.860888712727183e-06
	3.190907800208602e-06
	-7.864521863043640e-07
	-1.294786789937128e-06
	-4.868575096526329e-07
	1.218075980744101e-06
	6.465716839932592e-07
	1.279680843606140e-06
	6.464921778951937e-07
	-1.340269489619139e-06
	2.586110746017912e-08
	5.201411358047246e-08
	2.583914875091822e-08
	-5.179733667612705e-08
	3.772885460306291e-11
	-7.166804597481115e-12
	-4.692755481294999e-11
	2.438380135784020e-12
	2.658031627471025e-12
	-9.402818925567144e-07
	-9.289165818991757e-07
	8.713170642684121e-07
	-9.311146789087501e-07
	-9.199221483673412e-07
	-1.268684397725545e-13
	4.295593051588607e-06
	8.895374299800150e-07
	2.500000000000000e+00

 11	6.117913999999999e-03
	-3.030237775239980e-06
	-1.246479623436430e-07
	-1.935198018361409e-06
	3.126874559714061e-06
	-8.970299000203368e-07
	-1.352421471156331e-06
	-4.346352013573345e-07
	1.267248047809729e-06
	5.955507191007210e-07
	1.175209718224864e-06
	5.956303042168130e-07
	-1.247897786344009e-06
	4.721708798237948e-08
	9.241198241889147e-08
	4.723848897662900e-08
	-1.007753838295740e-07
	-3.772752272680942e-11
	7.176052332842528e-12
	4.692705847798839e-11
	-2.425572009130582e-12
	-1.024354105945184e-07
	-9.574088273558304e-07
	-8.474311101269238e-07
	8.865283285855600e-07
	-9.142532535935656e-07
	-9.032854663556944e-07
	1.268479537853070e-13
	4.295586778400324e-06
	8.737720440809711e-07
	2.500000000000000e+00

 12	6.674087999999998e-03
	-3.030469634851535e-06
	-1.246886869053384e-07
	-1.935347344118557e-06
	3.126874627379412e-06
	-8.970326888681658e-07
	-1.559908365375272e-07
	7.085521508982765e-07
	1.458135324886109e-07
	-1.160668555763179e-06
	-2.362670599739400e-06
	-1.160762811180088e-06
	2.132659491542911e-06
	1.171206748018876e-06
	2.291585256442528e-06
	1.171157423847506e-06
	-2.499339521584440e-06
	3.772641961334353e-11
	-7.176061075884918e-12
	-4.692634072880960e-11
	2.425556756016899e-12
	-2.540402502373222e-06
	-1.364538891632106e-06
	1.092283661080571e-06
	1.246671463200170e-06
	-5.131554985884350e-07
	-5.071907850863080e-07
	-1.268658660709701e-13
	4.295593186970686e-06
	4.986663795317203e-07
	2.500000000000000e+00

 13	7.230261999999998e-03
	-3.030587253009872e-06
	-1.247293179127031e-07
	-1.935354608868957e-06
	3.126874623460230e-06
	-8.970380300598688e-07
	-2.553151029667674e-06
	-1.612709566488573e-06
	2.311730601346144e-06
	1.890097225421965e-08
	3.529198724890926e-08
	1.896724863134018e-08
	-4.435248304171855e-08
	1.168523487477687e-06
	2.284434471561627e-06
	1.168572825457378e-06
	-2.498195817945018e-06
	-3.772568548890876e-11
	7.176011289526009e-12
	4.692525244311878e-11
	-2.425583587463530e-12
	-2.641628710251473e-06
	-1.380526614398789e-06
	1.167931438797447e-06
	1.260726997642444e-06
	-4.975735592086431e-07
	-4.918052928392617e-07
	1.268449376448518e-13
	4.295586913678029e-06
	4.838592272017401e-07
	2.500000000000000e+00

 14	7.786435999999997e-03
	-3.030704815717856e-06
	-1.247699140699950e-07
	-1.935361883801689e-06
	3.126874691074414e-06
	-8.970407313962803e-07
	-2.654881094308080e-06
	-1.713935384899546e-06
	2.397176139928708e-06
	1.189263689252652e-06
	2.325457466540113e-06
	1.189225019809212e-06
	-2.528548672738058e-06
	4.876796113278649e-08
	9.803825106747454e-08
	4.874655166303637e-08
	-9.787863401141858e-08
	-4.754417015630797e-08
	-9.700494741165752e-08
	-4.762995351835356e-08
	8.836224444168757e-08
	-2.544950688550725e-06
	-1.282140598982095e-06
	1.172249622715702e-06
	1.166614552459671e-06
	-4.323459265635531e-07
	-4.272638017768076e-07
	-1.646495772409864e-13
	4.250162755600550e-06
	4.169803172213687e-07
	2.511397530319233e+00

 15	8.342609999999997e-03
	-3.030822281926312e-06
	-1.248104757376273e-07
	-1.935369140171075e-06
	3.126874687103744e-06
	-8.970460643275553e-07
	-2.654878217787261e-06
	-1.713950586908773e-06
	2.397181464663959e-06
	1.201804840036484e-06
	2.348383798107439e-06
	1.201843874275765e-06
	-2.557343145382127e-06
	3.387049913359449e-08
	6.676818438593334e-08
	3.389224047238733e-08
	-7.124889358393484e-08
	-1.132503777687262e-06
	-2.308533181049136e-06
	-1.132443859676429e-06
	2.103279664238656e-06
	-2.381591479553293e-07
	1.013660726920583e-06
	1.224479730407946e-06
	-1.028666613562023e-06
	1.075051173913562e-06
	1.064429512484144e-06
	-7.300684398865015e-13
	3.168992865809739e-06
	-1.127421908584730e-06
	2.771274841112139e+00

 16	8.898783999999996e-03
	-3.030939692796192e-06
	-1.248510026313068e-07
	-1.935376406727737e-06
	3.126874754666217e-06
	-8.622499956567523e-07
	-2.551857819379409e-06
	-1.647476388191912e-06
	2.304528100109504e-06
	3.619684101510798e-07
	7.185003565886362e-07
	3.619100746336126e-07
	-7.509812050468236e-07
	8.402701820718859e-07
	1.655773807459502e-06
	8.402286768803085e-07
	-1.767124138196516e-06
	-4.657857410864553e-08
	-9.406043198106872e-08
	-4.661265887847679e-08
	9.338770219684632e-08
	-6.038425512952549e-09
	2.577016289774121e-08
	3.148320458047770e-08
	-2.543543299743423e-08
	2.749216484450975e-08
	2.720099645922245e-08
	8.130065415723031e-13
	3.151182935025979e-06
	-2.798061920224742e-08
	2.511393541847838e+00

 17	9.454957999999996e-03
	-3.031057007275209e-06
	-1.248914951116347e-07
	-1.935383654724827e-06
	3.126874750644097e-06
	-3.403474696938829e-08
	-1.321157960326659e-07
	-9.687821581327883e-08
	1.296698647253191e-07
	-8.085646569978487e-07
	-1.647233909912815e-06
	-8.084782278061508e-07
	1.515242111236172e-06
	8.392645673403239e-07
	1.652721528613655e-06
	8.393060702466365e-07
	-1.767619028363923e-06
	-1.540412290845825e-11
	3.637113996153198e-12
	1.983165989751074e-11
	-4.641079960195849e-13
	-1.395383610798947e-12
	-4.990856080717606e-07
	-4.932662385437470e-07
	4.707218523082364e-07
	-4.939568850356313e-07
	-4.882362747788256e-07
	-5.754084621050388e-13
	3.729966932604877e-06
	4.808964470411829e-07
	2.500000000000000e+00

 18	1.001113200000000e-02
	-3.031174266527613e-06
	-1.249319528938434e-07
	-1.935390912914890e-06
	3.126874818154938e-06
	3.183109668390977e-14
	-7.982157192737029e-07
	-7.906278416397674e-07
	7.647810005059068e-07
	3.415468816402673e-07
	6.810215897271890e-07
	3.414726740020140e-07
	-6.962932804480040e-07
	4.620473250375621e-08
	9.275593437701671e-08
	4.618272376862119e-08
	-9.305128403617667e-08
	1.544158688389136e-11
	-3.522157060125641e-12
	-1.979344297177447e-11
	4.951981442908611e-13
	1.395539937792315e-12
	-5.194214144299241e-07
	-5.133627453286459e-07
	4.895112907137922e-07
	-5.140861325033660e-07
	-5.081315390005929e-07
	5.332812078932169e-13
	3.755292982588587e-06
	5.000633165515640e-07
	2.500000000000000e+00

 19	1.056730600000000e-02
	-3.031291436101636e-06
	-1.249723769656629e-07
	-1.935398156224806e-06
	3.126874831966499e-06
	-3.855389528265349e-17
	-8.308897931827946e-07
	-8.229788743212792e-07
	7.950469977811234e-07
	1.030311052036794e-07
	2.068636116682924e-07
	1.030287459421555e-07
	-2.066134160436377e-07
	3.008686790456515e-07
	6.007697734451562e-07
	3.008662394032093e-07
	-6.146620805253246e-07
	-5.348894009998114e-14
	8.392392595587561e-16
	5.818388147115376e-14
	6.458728823728438e-16
	5.028657525041421e-16
	-5.260646853312463e-07
	-5.199291740811526e-07
	4.569452362542352e-07
	-5.074914161522474e-07
	-5.016239713437880e-07
	-1.849307573257184e-16
	3.755290611788075e-06
	4.937933024316513e-07
	2.499999999999912e+00

 20	1.112347999999999e-02
	-3.031408533672861e-06
	-1.250127658667491e-07
	-1.935405398870273e-06
	3.126874863651325e-06
	1.288000719474014e-19
	-8.308896332510298e-07
	-8.229860505346276e-07
	7.950500284209091e-07
	1.034656410592027e-07
	2.077366211296794e-07
	1.034674587498027e-07
	-2.074963305361500e-07
	3.004360777394606e-07
	5.999145350702858e-07
	3.004378355568816e-07
	-6.137661071845625e-07
	-2.169150336680578e-17
	8.151941879540377e-20
	2.363411050694095e-17
	-1.760807250993990e-19
	-2.819711558319470e-09
	-5.199027900700657e-07
	-5.109818084983077e-07
	-4.900205212612762e-07
	-5.136121202979622e-07
	-5.076792797946416e-07
	8.804036254969950e-20
	3.755290665702273e-06
	4.996157315182737e-07
	2.499999999999820e+00

 21	1.167965399999999e-02
	-3.031525554202154e-06
	-1.250531197374147e-07
	-1.935412637258968e-06
	3.126874895305705e-06
	-4.009007043194284e-19
	-8.308894730914234e-07
	-8.229932167788042e-07
	7.950530569304838e-07
	3.812566357080691e-07
	7.594254066006496e-07
	3.812589468919418e-07
	-7.792796367774743e-07
	2.150600296126306e-08
	4.313180299791960e-08
	2.150820402118454e-08
	-4.346977848831443e-08
	-8.129035607536111e-17
	6.051204205902167e-19
	8.791390053717757e-17
	-1.311206586990934e-19
	-6.374009833650702e-07
	-5.905794412622836e-07
	4.825365574051617e-08
	-5.550433403720437e-07
	-3.697983357180699e-07
	-3.655782486289425e-07
	3.397958325233444e-14
	3.708897320575385e-06
	3.619903615691013e-07
	2.500000000000008e+00

 22	1.223582799999999e-02
	-3.031642499129494e-06
	-1.250934391208625e-07
	-1.935419871477947e-06
	3.126874926934020e-06
	-3.632372132218583e-20
	-8.432227893758620e-07
	-8.352103529695810e-07
	8.064620936502571e-07
	3.775108885363693e-07
	7.522234119834801e-07
	3.775083641945973e-07
	-7.710963549280989e-07
	-3.750661080743046e-08
	-7.560771209271664e-08
	-3.751058622408683e-08
	7.477831769365743e-08
	6.876460192788256e-08
	1.383226214179250e-07
	6.876295949967286e-08
	-1.392010652636473e-07
	-6.866172628908434e-07
	-1.527715476506262e-07
	5.152182485739350e-07
	-1.457037563434700e-07
	7.224143249412797e-08
	7.147325472138984e-08
	4.025189953452964e-13
	3.174923701747280e-06
	-7.305680102013110e-08
	2.499999999999994e+00

 23	1.279200199999999e-02
	-3.031759370021235e-06
	-1.251337248682176e-07
	-1.935427101606067e-06
	3.126874958537250e-06
	0.000000000000000e+00
	-9.794648246378556e-07
	-9.700868658514294e-07
	9.317809808056966e-07
	9.812326385529000e-08
	1.966396413666976e-07
	9.811560429147698e-08
	-1.976376184526776e-07
	-4.558123587875535e-07
	-9.267424417053176e-07
	-4.558352850788070e-07
	8.796508883382321e-07
	7.746773071610637e-07
	1.528545203145952e-06
	7.746597151436789e-07
	-1.640389981803982e-06
	-6.075770525237053e-07
	-1.196337511334238e-07
	4.723859341343597e-07
	-1.148567476274213e-07
	7.955569214076072e-08
	7.868961800791861e-08
	-3.945331535521552e-13
	3.195955023615588e-06
	-7.961828262074755e-08
	2.509418875272305e+00

 24	1.334817599999999e-02
	-3.031876165461102e-06
	-1.251739763060156e-07
	-1.935434327565820e-06
	3.126874990114926e-06
	-1.986785738360080e-19
	-9.918157217161892e-07
	-9.823219781109662e-07
	9.431445565949789e-07
	1.042775288913241e-07
	2.093644372029681e-07
	1.042850450810801e-07
	-2.091579473284352e-07
	-5.260814999993075e-07
	-1.069971537785410e-06
	-5.260602515294259e-07
	1.012782225304685e-06
	4.673254908967653e-07
	9.300707074811532e-07
	4.673318818501260e-07
	-9.727534800195275e-07
	2.250620445241598e-07
	-2.371219079649918e-07
	-4.662379009751633e-07
	-2.264279714654209e-07
	-3.132877564038612e-07
	-3.097410163223455e-07
	-6.862697469175340e-14
	4.006496124569736e-06
	3.067920484050750e-07
	2.603870692484233e+00

 25	1.390434999999999e-02
	-3.031992885503209e-06
	-1.252141934707666e-07
	-1.935441549360725e-06
	3.126875021667000e-06
	-4.155190083331089e-19
	-9.918157068597427e-07
	-9.823307429497245e-07
	9.431481929750728e-07
	4.472277461230936e-07
	8.889006719856783e-07
	4.472288555721588e-07
	-9.185351845310510e-07
	-8.840632675298077e-07
	-1.800530830346072e-06
	-8.840762199446695e-07
	1.661654869934352e-06
	8.414209801942056e-07
	1.659036934056991e-06
	8.414241331048520e-07
	-1.783794482507377e-06
	2.516989356579275e-08
	-7.311831982215551e-07
	-7.482134378501621e-07
	-6.828079063808380e-07
	-7.326068569700483e-07
	-7.240679865141101e-07
	2.655438770331703e-14
	4.080014025289907e-06
	7.054754276415480e-07
	2.509416453210257e+00

 26	1.446052399999999e-02
	-2.987053504564718e-06
	-1.244046688201194e-07
	-1.906590575600061e-06
	3.151431517670661e-06
	4.116377515592279e-08
	-9.489211090204729e-07
	-9.823391525666181e-07
	9.039515243073411e-07
	4.174522666124011e-07
	8.309711031516037e-07
	4.174503909125311e-07
	-8.546921686533153e-07
	-7.813780102164986e-07
	-1.591170236544481e-06
	-7.813641279875090e-07
	1.479239455226432e-06
	8.131266438291272e-07
	1.604811160410591e-06
	8.131261037928326e-07
	-1.720195901261631e-06
	3.287628309869454e-13
	-7.753453737470167e-07
	-7.661914857054110e-07
	-7.236154529419756e-07
	-7.677053961478659e-07
	-7.587575612005989e-07
	-2.655456822003020e-14
	4.080013223117047e-06
	7.387411595341739e-07
	2.499999999999994e+00

 27	1.501669799999999e-02
	-2.554313167492192e-06
	-1.155160736420387e-07
	-1.627065290814045e-06
	3.428433132505678e-06
	4.900609554835708e-07
	-4.018988332908828e-07
	-9.058440343393143e-07
	3.909385796171230e-07
	-2.446560990298719e-07
	-4.971763758732288e-07
	-2.446687558248701e-07
	4.728569640530492e-07
	6.059850552619741e-07
	1.193117229394188e-06
	6.059747865467272e-07
	-1.280601138281475e-06
	6.759425570126876e-08
	1.334436961132504e-07
	6.761306126829329e-08
	-1.429725495211408e-07
	-3.278455001781709e-13
	-7.753573093964888e-07
	-7.662097645536864e-07
	-7.236724145778442e-07
	-7.676947217275658e-07
	-7.587590593780461e-07
	2.655395402244803e-14
	4.080014147830298e-06
	7.387339178270293e-07
	2.500000000000006e+00

 28	1.557287199999999e-02
	-2.515222860093704e-06
	-1.147440050928151e-07
	-1.601759794026804e-06
	3.453550062853869e-06
	5.307537676654319e-07
	5.206639368639545e-07
	-1.313856144683650e-08
	-4.690720534714099e-07
	8.695994493982089e-11
	1.799015357359021e-10
	9.373191949198798e-11
	-1.843061757187271e-10
	6.502265416923086e-09
	1.309425291095835e-08
	6.507515855063781e-09
	-1.301578562034713e-08
	8.974005070546875e-16
	-1.239194719723857e-17
	-9.683927953465602e-16
	-8.953483632853210e-18
	-1.058413126120430e-17
	-7.753424170809142e-07
	-7.662030840630929e-07
	-7.237019330190743e-07
	-7.677104018299060e-07
	-7.587865892428968e-07
	-1.038278252049922e-18
	4.080013777287513e-06
	7.387504556089777e-07
	2.500000000000088e+00

 29	1.612904599999999e-02
	-2.515323526149414e-06
	-1.147807229923625e-07
	-1.601765963866754e-06
	3.453550100086474e-06
	5.307558295632800e-07
	-1.410473969390728e-07
	-6.858212785675271e-07
	-1.392795907372164e-07
	3.358795406151724e-07
	6.698973481783549e-07
	3.358755074449589e-07
	-6.844458348087960e-07
	8.457107913696080e-10
	1.701872870773517e-09
	8.446495962713075e-10
	-1.689934163307141e-09
	2.935547339707031e-18
	3.618563616060007e-19
	-2.972143049567183e-18
	7.182450738820108e-20
	-1.446361521596997e-09
	-7.735276945555915e-07
	-7.629377680903976e-07
	-7.221020863008136e-07
	-7.654144574930551e-07
	-7.565305568780688e-07
	1.397471175705295e-14
	4.077346303507029e-06
	7.366158386618376e-07
	2.500000000000165e+00

 30	1.668521999999999e-02
	-2.515424125264676e-06
	-1.148174086562647e-07
	-1.601772130031323e-06
	3.453550137289205e-06
	5.307578892859008e-07
	-1.428503512865780e-07
	-6.876493925616667e-07
	-1.410487543073584e-07
	5.939002657513097e-08
	1.191572107178308e-07
	5.938771452304700e-08
	-1.192899419006210e-07
	2.786858139527093e-07
	5.565826995247478e-07
	2.786825137635917e-07
	-5.690035614770842e-07
	-9.929939679554600e-19
	-1.273021154648464e-19
	6.806769468598244e-19
	-1.273021154648464e-19
	-4.860751265813510e-07
	-2.098306462259889e-07
	2.685902879162689e-07
	-2.001280951210647e-07
	-4.773006004953170e-08
	-4.718491436173078e-08
	2.759482006231384e-13
	3.280781240358025e-06
	4.643639524613092e-08
	2.499999999999995e+00

 31	1.724139399999999e-02
	-2.582731561509248e-06
	-1.163437509258752e-07
	-1.645464885501776e-06
	3.404858459080283e-06
	4.538296820825824e-07
	-2.229535109305808e-07
	-6.876554491721711e-07
	-2.192171149571557e-07
	6.610740136541483e-08
	1.328277148800420e-07
	6.610959690404734e-08
	-1.322976127057803e-07
	2.722188108422188e-07
	5.439367591911250e-07
	2.722225978253339e-07
	-5.551730580596952e-07
	2.629440341088598e-18
	3.564876883966707e-19
	-2.846280775585699e-18
	0.000000000000000e+00
	-5.566183812893974e-07
	-3.146734643613375e-07
	2.364062423196164e-07
	-2.991881950998839e-07
	-1.268136658849141e-07
	-1.254105792135913e-07
	-2.915979146800015e-13
	3.390812360424930e-06
	1.252571975486181e-07
	2.500000000000006e+00

 32	1.779756799999999e-02
	-2.955306923882778e-06
	-1.239303491155368e-07
	-1.885553648287137e-06
	3.174478554518277e-06
	7.781436666918836e-08
	-6.133507781798021e-07
	-6.876610493894218e-07
	-5.910750977469890e-07
	2.910769591172603e-07
	5.807110255662592e-07
	2.910804058764974e-07
	-5.927336741285815e-07
	4.666496443844657e-08
	9.327433464536699e-08
	4.666659539952084e-08
	-9.509937583853308e-08
	-3.432293969249446e-08
	-6.927004477877404e-08
	-3.432378831839051e-08
	6.882773577521176e-08
	-4.864460549007887e-07
	-3.061540198643845e-07
	1.771079744802614e-07
	-2.914987469224540e-07
	-1.411871074812146e-07
	-1.396317847175322e-07
	2.777598890270943e-13
	3.436252729426374e-06
	1.397042982506019e-07
	2.508394916815862e+00

 33	1.835374199999999e-02
	-3.032924071366164e-06
	-1.255346984355750e-07
	-1.935499163669260e-06
	3.126875038559718e-06
	1.314303231685653e-13
	-6.452970547247613e-07
	-6.393087791744855e-07
	-6.221992603781791e-07
	2.866807763778418e-07
	5.725196177066257e-07
	2.866783622240324e-07
	-5.824170850390691e-07
	2.801689210850901e-08
	5.635640917234257e-08
	2.801571382884495e-08
	-5.616835105251102e-08
	-1.667849213040193e-07
	-3.377299868225396e-07
	-1.667873230175959e-07
	3.306473302257608e-07
	-1.376903261483572e-07
	-1.136981796788068e-07
	2.386360504890250e-08
	-1.089392102428855e-07
	-6.667791668689890e-08
	-6.594810073107167e-08
	-2.777611570938392e-13
	3.436251292245024e-06
	6.617480142086469e-08
	2.540579283984099e+00

 34	1.890991599999999e-02
	-3.033040074879028e-06
	-1.255746133545679e-07
	-1.935506442026124e-06
	3.126875539128796e-06
	-1.314315561363663e-13
	-4.105720073473781e-07
	-4.068269953679154e-07
	-3.995862380192656e-07
	3.812434100658208e-08
	7.599010484450486e-08
	3.812609361434897e-08
	-7.784451419930413e-08
	1.630732739206868e-07
	3.266297307836660e-07
	1.630712144033640e-07
	-3.305943701974217e-07
	-3.450868751641069e-08
	-6.988293378906856e-08
	-3.450303466815403e-08
	6.837021175968404e-08
	-1.165204479724936e-08
	-2.264346420703911e-07
	-2.122936278439077e-07
	-2.161994363481617e-07
	-2.202587552648069e-07
	-2.178177322863211e-07
	2.777572981833457e-13
	3.436252820522345e-06
	2.168131667402008e-07
	2.508393335346188e+00

 35	1.946608999999999e-02
	-3.033156100131914e-06
	-1.256144853299113e-07
	-1.935513532026707e-06
	3.126875101181508e-06
	1.314316038513316e-13
	-3.620352033162609e-07
	-3.587561129434096e-07
	-3.535272695784939e-07
	1.484737414241499e-08
	2.986718074296211e-08
	1.484618173838993e-08
	-2.961094661568813e-08
	1.631226189260845e-07
	3.269211870588896e-07
	1.631246796806431e-07
	-3.302184899824082e-07
	2.155497390523031e-12
	-3.933896727644709e-13
	-2.649435697298783e-12
	2.336313883961307e-13
	1.289318850306702e-13
	-2.593787542858670e-07
	-2.564597419761011e-07
	-2.475364231834045e-07
	-2.567935411164831e-07
	-2.539488144862385e-07
	-2.777588216871149e-13
	3.436251383265776e-06
	2.526679933405773e-07
	2.500000000000006e+00

 36	2.002226399999999e-02
	-3.033271973579409e-06
	-1.256543327099823e-07
	-1.935520754036899e-06
	3.126875367075830e-06
	-2.589404544672658e-18
	-3.620349700885716e-07
	-3.587588227104814e-07
	-3.535287442751967e-07
	1.763202445213510e-07
	3.531782270118654e-07
	1.763212992828020e-07
	-3.555930440082317e-07
	1.651795854768970e-09
	3.326811241917258e-09
	1.652799447494183e-09
	-3.303831756396673e-09
	7.365499124754484e-16
	-7.354821952308793e-18
	-7.775612874103019e-16
	-4.057832801273382e-18
	-5.587762565896871e-18
	-2.648259958796818e-07
	-2.618463994736532e-07
	-2.128979747573345e-07
	-2.487268943139547e-07
	-2.459770946107099e-07
	3.172462958303461e-14
	3.434634346597563e-06
	2.448274784842721e-07
	2.500000000000000e+00

 37	2.057843799999999e-02
	-3.033387793224971e-06
	-1.104628028613237e-07
	-1.935527926077726e-06
	3.126875398326076e-06
	-4.296004422860704e-19
	-3.620349033536313e-07
	-3.587617762054873e-07
	-3.535301310610161e-07
	4.619501235688471e-08
	9.287589757729021e-08
	4.619342121745457e-08
	-9.227032995963618e-08
	1.320063406675140e-07
	2.647923171734551e-07
	1.320048142175691e-07
	-2.666127856173765e-07
	-1.685758355479231e-18
	-4.255200155779391e-19
	1.256157913192963e-18
	-8.160853416262694e-21
	-2.168404344971009e-19
	-5.185924282995977e-10
	-5.129114947826171e-10
	5.011536901663479e-10
	-5.104655569787851e-10
	-5.049773792801642e-10
	1.302595492398146e-13
	3.127476357992908e-06
	5.086526378419380e-10
	2.500000000000000e+00

 38	2.113461199999999e-02
	-3.033503538183146e-06
	1.257337139625840e-07
	-1.935535093983747e-06
	3.126875429548059e-06
	1.114766755142803e-19
	-3.603631073042175e-07
	-3.571085670354146e-07
	-3.519268400115670e-07
	4.587715719826436e-08
	9.224015784721572e-08
	4.587860179331194e-08
	-9.163646884939854e-08
	1.315075941251325e-07
	2.637966269680585e-07
	1.315081987537029e-07
	-2.655979793069508e-07
	-4.245114941973080e-19
	4.336808689942018e-19
	6.382954704283832e-19
	0.000000000000000e+00
	-8.242843650191665e-09
	-3.821305619745456e-07
	-3.694557102746531e-07
	3.627195684301036e-07
	-3.755048240005834e-07
	-3.713174738796644e-07
	-7.449523199629262e-14
	3.583925301599891e-06
	3.674961487328837e-07
	2.499999999999923e+00

 39	2.169078599999999e-02
	-3.033619203942280e-06
	1.257734555394665e-07
	-1.935542257482871e-06
	3.126875460744205e-06
	-7.943207752529421e-20
	-4.042665425432976e-07
	-4.005051527692337e-07
	-3.877835050195458e-07
	1.727956129860573e-07
	3.438090001814679e-07